<?xml version="1.0" ?>
<VTKFile type="UnstructuredGrid" version="0.1" byte_order="LittleEndian" compressor="vtkZLibDataCompressor">
    <UnstructuredGrid>
        <Piece NumberOfPoints="729" NumberOfCells="512">
            <PointData />
            <CellData>
                <DataArray type="Int32" Name="Material Id" format="ascii" RangeMin="-1" RangeMax="1000">-1 -1 -1 -1 -1 -1 -1 -1 -1 -1 -1 -1 -1 -1 -1 -1 -1 -1 -1 -1 -1 -1 -1 -1 -1 -1 -1 -1 -1 -1 -1 -1 -1 -1 -1 -1 -1 -1 -1 -1 -1 -1 -1 -1 -1 -1 -1 -1 -1 -1 -1 -1 -1 -1 -1 -1 -1 -1 -1 -1 -1 -1 -1 -1 -1 -1 -1 -1 -1 -1 -1 -1 -1 -1 -1 -1 -1 -1 -1 -1 -1 -1 -1 -1 -1 -1 -1 -1 -1 -1 -1 -1 -1 -1 -1 -1 -1 -1 -1 -1 -1 -1 -1 -1 -1 -1 -1 -1 -1 -1 -1 -1 -1 -1 -1 -1 -1 -1 -1 -1 -1 -1 -1 -1 -1 -1 -1 -1 -1 -1 -1 -1 -1 -1 -1 -1 -1 -1 -1 -1 -1 -1 -1 -1 -1 -1 -1 -1 -1 -1 -1 -1 -1 -1 -1 -1 -1 -1 -1 -1 -1 -1 -1 -1 -1 -1 -1 -1 -1 -1 -1 -1 -1 -1 -1 -1 -1 -1 -1 -1 -1 -1 -1 -1 -1 -1 -1 -1 -1 -1 -1 -1 -1 -1 -1 -1 -1 -1 -1 -1 -1 -1 -1 -1 -1 -1 -1 -1 -1 -1 -1 -1 -1 -1 -1 -1 -1 -1 -1 -1 -1 -1 -1 -1 -1 -1 -1 -1 -1 -1 -1 -1 -1 -1 -1 -1 -1 -1 -1 -1 -1 -1 -1 -1 -1 -1 -1 -1 -1 -1 -1 -1 -1 -1 -1 -1 -1 -1 -1 -1 -1 -1 -1 -1 -1 -1 -1 -1 -1 -1 -1 -1 -1 -1 -1 -1 -1 -1 -1 -1 -1 -1 -1 -1 -1 -1 -1 -1 -1 -1 -1 -1 -1 -1 -1 -1 -1 -1 -1 -1 -1 -1 -1 -1 -1 -1 -1 -1 -1 -1 -1 -1 -1 -1 -1 -1 -1 -1 -1 -1 -1 -1 -1 -1 -1 -1 -1 -1 -1 -1 -1 -1 -1 -1 -1 -1 -1 -1 -1 -1 -1 -1 -1 -1 -1 -1 -1 -1 -1 -1 -1 -1 -1 -1 -1 -1 -1 -1 -1 -1 -1 -1 -1 -1 -1 -1 -1 -1 -1 -1 -1 -1 -1 -1 -1 -1 -1 -1 -1 -1 -1 -1 -1 -1 -1 -1 -1 -1 -1 -1 -1 -1 -1 -1 -1 -1 -1 -1 -1 -1 -1 -1 -1 -1 -1 -1 -1 -1 -1 -1 -1 -1 -1 -1 -1 -1 -1 -1 -1 -1 -1 -1 -1 -1 -1 -1 -1 -1 -1 -1 -1 -1 -1 -1 -1 -1 -1 -1 -1 -1 -1 -1 -1 -1 -1 -1 -1 -1 -1 -1 -1 -1 -1 -1 -1 -1 -1 -1 -1 -1 -1 -1 -1 -1 -1 -1 -1 -1 -1 -1 -1 -1 -1 -1 -1 -1 -1 -1 -1 -1 -1 -1 -1 -1 -1 -1 -1 -1 -1 -1 -1 -1 -1 -1 -1 -1 -1 -1 -1 -1 -1 -1 -1 -1 -1 -1 -1 -1 -1 -1 -1 -1 </DataArray>
            </CellData>
            <Points>
                <DataArray type="Float64" Name="Array" NumberOfComponents="3" format="ascii" RangeMin="0" RangeMax="1">0 0 0 0 1 0 1 1 0 1 0 0 0 0 1 0 1 1 1 1 1 1 0 1 0 0.5 0 0.5 1 0 1 0.5 0 0.5 0 0 0 0.5 1 0.5 1 1 1 0.5 1 0.5 0 1 0 0 0.5 0 1 0.5 1 1 0.5 1 0 0.5 0.5 0.5 0 0 0.5 0.5 0.5 0 0.5 0.5 1 0.5 1 0.5 0.5 0.5 0.5 1 0.5 0.5 0.5 0 0.25 0 0.25 0.5 0 0.5 0.25 0 0.25 0 0 0 0.25 0.5 0.25 0.5 0.5 0.5 0.25 0.5 0.25 0 0.5 0 0 0.25 0 0.5 0.25 0.5 0.5 0.25 0.5 0 0.25 0.25 0.25 0 0 0.25 0.25 0.25 0 0.25 0.25 0.5 0.25 0.5 0.25 0.25 0.25 0.25 0.5 0.25 0.25 0.25 0 0.75 0 0.25 1 0 0.5 0.75 0 0 0.75 0.5 0.25 1 0.5 0.5 0.75 0.5 0 1 0.25 0.5 1 0.25 0.25 0.75 0 0 0.75 0.25 0.25 1 0.25 0.5 0.75 0.25 0.25 0.75 0.5 0.25 0.75 0.25 0.75 1 0 1 0.75 0 0.75 0.5 0 0.75 1 0.5 1 0.75 0.5 0.75 0.5 0.5 1 1 0.25 1 0.5 0.25 0.75 0.75 0 0.75 0.5 0.25 0.75 1 0.25 1 0.75 0.25 0.75 0.75 0.5 0.75 0.75 0.25 1 0.25 0 0.75 0 0 1 0.25 0.5 0.75 0 0.5 1 0 0.25 0.75 0.25 0 0.75 0 0.25 1 0.25 0.25 0.75 0.25 0.5 0.75 0.25 0.25 0 0.25 1 0.25 0.5 1 0.5 0.25 1 0.25 0 1 0 0 0.75 0 0.5 0.75 0.5 0.5 0.75 0.5 0 0.75 0 0.25 0.75 0.25 0 0.75 0.25 0.5 0.75 0.5 0.25 0.75 0.25 0.25 1 0.25 0.25 0.75 0 0.75 1 0.25 1 1 0.5 0.75 1 0 1 0.75 0.5 1 0.75 0 0.75 0.75 0.25 1 0.75 0.5 0.75 0.75 0.25 0.75 1 0.25 0.75 0.75 0.75 1 1 1 0.75 1 0.75 0.5 1 1 1 0.75 1 0.5 0.75 0.75 0.5 0.75 0.75 1 0.75 1 0.75 0.75 0.75 0.75 1 0.75 0.75 0.75 1 0.25 1 0.75 0 1 1 0 0.75 0.75 0 0.75 1 0.25 0.75 0.75 0.25 1 0.75 0.25 0.75 0 0.125 0 0.125 0.25 0 0.25 0.125 0 0.125 0 0 0 0.125 0.25 0.125 0.25 0.25 0.25 0.125 0.25 0.125 0 0.25 0 0 0.125 0 0.25 0.125 0.25 0.25 0.125 0.25 0 0.125 0.125 0.125 0 0 0.125 0.125 0.125 0 0.125 0.125 0.25 0.125 0.25 0.125 0.125 0.125 0.125 0.25 0.125 0.125 0.125 0 0.375 0 0.125 0.5 0 0.25 0.375 0 0 0.375 0.25 0.125 0.5 0.25 0.25 0.375 0.25 0 0.5 0.125 0.25 0.5 0.125 0.125 0.375 0 0 0.375 0.125 0.125 0.5 0.125 0.25 0.375 0.125 0.125 0.375 0.25 0.125 0.375 0.125 0.375 0.5 0 0.5 0.375 0 0.375 0.25 0 0.375 0.5 0.25 0.5 0.375 0.25 0.375 0.25 0.25 0.5 0.5 0.125 0.5 0.25 0.125 0.375 0.375 0 0.375 0.25 0.125 0.375 0.5 0.125 0.5 0.375 0.125 0.375 0.375 0.25 0.375 0.375 0.125 0.5 0.125 0 0.375 0 0 0.5 0.125 0.25 0.375 0 0.25 0.5 0 0.125 0.375 0.125 0 0.375 0 0.125 0.5 0.125 0.125 0.375 0.125 0.25 0.375 0.125 0.125 0 0.125 0.5 0.125 0.25 0.5 0.25 0.125 0.5 0.125 0 0.5 0 0 0.375 0 0.25 0.375 0.25 0.25 0.375 0.25 0 0.375 0 0.125 0.375 0.125 0 0.375 0.125 0.25 0.375 0.25 0.125 0.375 0.125 0.125 0.5 0.125 0.125 0.375 0 0.375 0.5 0.125 0.5 0.5 0.25 0.375 0.5 0 0.5 0.375 0.25 0.5 0.375 0 0.375 0.375 0.125 0.5 0.375 0.25 0.375 0.375 0.125 0.375 0.5 0.125 0.375 0.375 0.375 0.5 0.5 0.5 0.375 0.5 0.375 0.25 0.5 0.5 0.5 0.375 0.5 0.25 0.375 0.375 0.25 0.375 0.375 0.5 0.375 0.5 0.375 0.375 0.375 0.375 0.5 0.375 0.375 0.375 0.5 0.125 0.5 0.375 0 0.5 0.5 0 0.375 0.375 0 0.375 0.5 0.125 0.375 0.375 0.125 0.5 0.375 0.125 0.375 0 0.625 0 0.125 0.75 0 0.25 0.625 0 0 0.625 0.25 0.125 0.75 0.25 0.25 0.625 0.25 0 0.75 0.125 0.25 0.75 0.125 0.125 0.625 0 0 0.625 0.125 0.125 0.75 0.125 0.25 0.625 0.125 0.125 0.625 0.25 0.125 0.625 0.125 0 0.875 0 0.125 1 0 0.25 0.875 0 0 0.875 0.25 0.125 1 0.25 0.25 0.875 0.25 0 1 0.125 0.25 1 0.125 0.125 0.875 0 0 0.875 0.125 0.125 1 0.125 0.25 0.875 0.125 0.125 0.875 0.25 0.125 0.875 0.125 0.375 1 0 0.5 0.875 0 0.375 0.75 0 0.375 1 0.25 0.5 0.875 0.25 0.375 0.75 0.25 0.5 1 0.125 0.5 0.75 0.125 0.375 0.875 0 0.375 0.75 0.125 0.375 1 0.125 0.5 0.875 0.125 0.375 0.875 0.25 0.375 0.875 0.125 0.5 0.625 0 0.5 0.625 0.25 0.375 0.625 0 0.5 0.625 0.125 0.375 0.625 0.25 0.375 0.625 0.125 0 0.625 0.5 0.125 0.75 0.5 0.25 0.625 0.5 0 0.75 0.375 0.25 0.75 0.375 0 0.625 0.375 0.125 0.75 0.375 0.25 0.625 0.375 0.125 0.625 0.5 0.125 0.625 0.375 0 0.875 0.5 0.125 1 0.5 0.25 0.875 0.5 0 1 0.375 0.25 1 0.375 0 0.875 0.375 0.125 1 0.375 0.25 0.875 0.375 0.125 0.875 0.5 0.125 0.875 0.375 0.375 1 0.5 0.5 0.875 0.5 0.375 0.75 0.5 0.5 1 0.375 0.5 0.75 0.375 0.375 0.75 0.375 0.375 1 0.375 0.5 0.875 0.375 0.375 0.875 0.5 0.375 0.875 0.375 0.5 0.625 0.5 0.5 0.625 0.375 0.375 0.625 0.5 0.375 0.625 0.375 0.625 0.75 0 0.75 0.625 0 0.625 0.5 0 0.625 0.75 0.25 0.75 0.625 0.25 0.625 0.5 0.25 0.75 0.75 0.125 0.75 0.5 0.125 0.625 0.625 0 0.625 0.5 0.125 0.625 0.75 0.125 0.75 0.625 0.125 0.625 0.625 0.25 0.625 0.625 0.125 0.625 1 0 0.75 0.875 0 0.625 1 0.25 0.75 0.875 0.25 0.75 1 0.125 0.625 0.875 0 0.625 1 0.125 0.75 0.875 0.125 0.625 0.875 0.25 0.625 0.875 0.125 0.875 1 0 1 0.875 0 0.875 0.75 0 0.875 1 0.25 1 0.875 0.25 0.875 0.75 0.25 1 1 0.125 1 0.75 0.125 0.875 0.875 0 0.875 0.75 0.125 0.875 1 0.125 1 0.875 0.125 0.875 0.875 0.25 0.875 0.875 0.125 1 0.625 0 0.875 0.5 0 1 0.625 0.25 0.875 0.5 0.25 1 0.5 0.125 0.875 0.625 0 0.875 0.5 0.125 1 0.625 0.125 0.875 0.625 0.25 0.875 0.625 0.125 0.625 0.75 0.5 0.75 0.625 0.5 0.625 0.5 0.5 0.75 0.75 0.375 0.75 0.5 0.375 0.625 0.5 0.375 0.625 0.75 0.375 0.75 0.625 0.375 0.625 0.625 0.5 0.625 0.625 0.375 0.625 1 0.5 0.75 0.875 0.5 0.75 1 0.375 0.625 1 0.375 0.75 0.875 0.375 0.625 0.875 0.5 0.625 0.875 0.375 0.875 1 0.5 1 0.875 0.5 0.875 0.75 0.5 1 1 0.375 1 0.75 0.375 0.875 0.75 0.375 0.875 1 0.375 1 0.875 0.375 0.875 0.875 0.5 0.875 0.875 0.375 1 0.625 0.5 0.875 0.5 0.5 1 0.5 0.375 0.875 0.5 0.375 1 0.625 0.375 0.875 0.625 0.5 0.875 0.625 0.375 0.625 0.25 0 0.75 0.125 0 0.625 0 0 0.625 0.25 0.25 0.75 0.125 0.25 0.625 0 0.25 0.75 0.25 0.125 0.75 0 0.125 0.625 0.125 0 0.625 0 0.125 0.625 0.25 0.125 0.75 0.125 0.125 0.625 0.125 0.25 0.625 0.125 0.125 0.75 0.375 0 0.75 0.375 0.25 0.625 0.375 0 0.75 0.375 0.125 0.625 0.375 0.25 0.625 0.375 0.125 1 0.375 0 0.875 0.25 0 1 0.375 0.25 0.875 0.25 0.25 1 0.25 0.125 0.875 0.375 0 0.875 0.25 0.125 1 0.375 0.125 0.875 0.375 0.25 0.875 0.375 0.125 1 0.125 0 0.875 0 0 1 0.125 0.25 0.875 0 0.25 1 0 0.125 0.875 0.125 0 0.875 0 0.125 1 0.125 0.125 0.875 0.125 0.25 0.875 0.125 0.125 0.625 0.25 0.5 0.75 0.125 0.5 0.625 0 0.5 0.75 0.25 0.375 0.75 0 0.375 0.625 0 0.375 0.625 0.25 0.375 0.75 0.125 0.375 0.625 0.125 0.5 0.625 0.125 0.375 0.75 0.375 0.5 0.75 0.375 0.375 0.625 0.375 0.5 0.625 0.375 0.375 1 0.375 0.5 0.875 0.25 0.5 1 0.25 0.375 0.875 0.25 0.375 1 0.375 0.375 0.875 0.375 0.5 0.875 0.375 0.375 1 0.125 0.5 0.875 0 0.5 1 0 0.375 0.875 0 0.375 1 0.125 0.375 0.875 0.125 0.5 0.875 0.125 0.375 0 0.125 0.75 0.125 0.25 0.75 0.25 0.125 0.75 0.125 0 0.75 0 0 0.625 0 0.25 0.625 0.25 0.25 0.625 0.25 0 0.625 0 0.125 0.625 0.125 0 0.625 0.125 0.25 0.625 0.25 0.125 0.625 0.125 0.125 0.75 0.125 0.125 0.625 0 0.375 0.75 0.125 0.5 0.75 0.25 0.375 0.75 0 0.5 0.625 0.25 0.5 0.625 0 0.375 0.625 0.125 0.5 0.625 0.25 0.375 0.625 0.125 0.375 0.75 0.125 0.375 0.625 0.375 0.5 0.75 0.5 0.375 0.75 0.375 0.25 0.75 0.5 0.5 0.625 0.5 0.25 0.625 0.375 0.25 0.625 0.375 0.5 0.625 0.5 0.375 0.625 0.375 0.375 0.75 0.375 0.375 0.625 0.5 0.125 0.75 0.375 0 0.75 0.5 0 0.625 0.375 0 0.625 0.5 0.125 0.625 0.375 0.125 0.75 0.375 0.125 0.625 0 0.125 1 0.125 0.25 1 0.25 0.125 1 0.125 0 1 0 0 0.875 0 0.25 0.875 0.25 0.25 0.875 0.25 0 0.875 0 0.125 0.875 0.125 0 0.875 0.125 0.25 0.875 0.25 0.125 0.875 0.125 0.125 1 0.125 0.125 0.875 0 0.375 1 0.125 0.5 1 0.25 0.375 1 0 0.5 0.875 0.25 0.5 0.875 0 0.375 0.875 0.125 0.5 0.875 0.25 0.375 0.875 0.125 0.375 1 0.125 0.375 0.875 0.375 0.5 1 0.5 0.375 1 0.375 0.25 1 0.5 0.5 0.875 0.5 0.25 0.875 0.375 0.25 0.875 0.375 0.5 0.875 0.5 0.375 0.875 0.375 0.375 1 0.375 0.375 0.875 0.5 0.125 1 0.375 0 1 0.5 0 0.875 0.375 0 0.875 0.5 0.125 0.875 0.375 0.125 1 0.375 0.125 0.875 0 0.625 0.75 0.125 0.75 0.75 0.25 0.625 0.75 0 0.75 0.625 0.25 0.75 0.625 0 0.625 0.625 0.125 0.75 0.625 0.25 0.625 0.625 0.125 0.625 0.75 0.125 0.625 0.625 0 0.875 0.75 0.125 1 0.75 0.25 0.875 0.75 0 1 0.625 0.25 1 0.625 0 0.875 0.625 0.125 1 0.625 0.25 0.875 0.625 0.125 0.875 0.75 0.125 0.875 0.625 0.375 1 0.75 0.5 0.875 0.75 0.375 0.75 0.75 0.5 1 0.625 0.5 0.75 0.625 0.375 0.75 0.625 0.375 1 0.625 0.5 0.875 0.625 0.375 0.875 0.75 0.375 0.875 0.625 0.5 0.625 0.75 0.5 0.625 0.625 0.375 0.625 0.75 0.375 0.625 0.625 0 0.625 1 0.125 0.75 1 0.25 0.625 1 0 0.75 0.875 0.25 0.75 0.875 0 0.625 0.875 0.125 0.75 0.875 0.25 0.625 0.875 0.125 0.625 1 0.125 0.625 0.875 0 0.875 1 0.125 1 1 0.25 0.875 1 0 1 0.875 0.25 1 0.875 0 0.875 0.875 0.125 1 0.875 0.25 0.875 0.875 0.125 0.875 1 0.125 0.875 0.875 0.375 1 1 0.5 0.875 1 0.375 0.75 1 0.5 1 0.875 0.5 0.75 0.875 0.375 0.75 0.875 0.375 1 0.875 0.5 0.875 0.875 0.375 0.875 1 0.375 0.875 0.875 0.5 0.625 1 0.5 0.625 0.875 0.375 0.625 1 0.375 0.625 0.875 0.625 0.75 0.75 0.75 0.625 0.75 0.625 0.5 0.75 0.75 0.75 0.625 0.75 0.5 0.625 0.625 0.5 0.625 0.625 0.75 0.625 0.75 0.625 0.625 0.625 0.625 0.75 0.625 0.625 0.625 0.625 1 0.75 0.75 0.875 0.75 0.75 1 0.625 0.625 1 0.625 0.75 0.875 0.625 0.625 0.875 0.75 0.625 0.875 0.625 0.875 1 0.75 1 0.875 0.75 0.875 0.75 0.75 1 1 0.625 1 0.75 0.625 0.875 0.75 0.625 0.875 1 0.625 1 0.875 0.625 0.875 0.875 0.75 0.875 0.875 0.625 1 0.625 0.75 0.875 0.5 0.75 1 0.5 0.625 0.875 0.5 0.625 1 0.625 0.625 0.875 0.625 0.75 0.875 0.625 0.625 0.625 0.75 1 0.75 0.625 1 0.625 0.5 1 0.75 0.75 0.875 0.75 0.5 0.875 0.625 0.5 0.875 0.625 0.75 0.875 0.75 0.625 0.875 0.625 0.625 1 0.625 0.625 0.875 0.625 1 1 0.75 0.875 1 0.75 1 0.875 0.625 1 0.875 0.75 0.875 0.875 0.625 0.875 1 0.625 0.875 0.875 0.875 1 1 1 0.875 1 0.875 0.75 1 1 1 0.875 1 0.75 0.875 0.875 0.75 0.875 0.875 1 0.875 1 0.875 0.875 0.875 0.875 1 0.875 0.875 0.875 1 0.625 1 0.875 0.5 1 1 0.5 0.875 0.875 0.5 0.875 1 0.625 0.875 0.875 0.625 1 0.875 0.625 0.875 0.625 0.25 0.75 0.75 0.125 0.75 0.625 0 0.75 0.75 0.25 0.625 0.75 0 0.625 0.625 0 0.625 0.625 0.25 0.625 0.75 0.125 0.625 0.625 0.125 0.75 0.625 0.125 0.625 0.75 0.375 0.75 0.75 0.375 0.625 0.625 0.375 0.75 0.625 0.375 0.625 1 0.375 0.75 0.875 0.25 0.75 1 0.25 0.625 0.875 0.25 0.625 1 0.375 0.625 0.875 0.375 0.75 0.875 0.375 0.625 1 0.125 0.75 0.875 0 0.75 1 0 0.625 0.875 0 0.625 1 0.125 0.625 0.875 0.125 0.75 0.875 0.125 0.625 0.625 0.25 1 0.75 0.125 1 0.625 0 1 0.75 0.25 0.875 0.75 0 0.875 0.625 0 0.875 0.625 0.25 0.875 0.75 0.125 0.875 0.625 0.125 1 0.625 0.125 0.875 0.75 0.375 1 0.75 0.375 0.875 0.625 0.375 1 0.625 0.375 0.875 1 0.375 1 0.875 0.25 1 1 0.25 0.875 0.875 0.25 0.875 1 0.375 0.875 0.875 0.375 1 0.875 0.375 0.875 1 0.125 1 0.875 0 1 1 0 0.875 0.875 0 0.875 1 0.125 0.875 0.875 0.125 1 0.875 0.125 0.875 </DataArray>
            </Points>
            <Cells>
                <DataArray type="Int64" Name="connectivity" format="ascii" RangeMin="0" RangeMax="728">0 125 137 128 133 138 143 139 125 27 126 137 138 134 140 143 137 126 39 127 143 140 135 141 128 137 127 30 139 143 141 136 133 138 143 139 35 129 142 132 138 134 140 143 129 40 130 142 143 140 135 141 142 130 45 131 139 143 141 136 132 142 131 41 27 144 152 126 134 153 157 140 144 8 145 152 153 150 154 157 152 145 28 146 157 154 151 155 126 152 146 39 140 157 155 135 134 153 157 140 40 147 156 130 153 150 154 157 147 36 148 156 157 154 151 155 156 148 42 149 140 157 155 135 130 156 149 45 39 146 166 160 135 155 171 167 146 28 158 166 155 151 168 171 166 158 20 159 171 168 164 169 160 166 159 29 167 171 169 165 135 155 171 167 45 149 170 163 155 151 168 171 149 42 161 170 171 168 164 169 170 161 37 162 167 171 169 165 163 170 162 43 30 127 177 173 136 141 181 178 127 39 160 177 141 135 167 181 177 160 29 172 181 167 165 179 173 177 172 11 178 181 179 176 136 141 181 178 41 131 180 175 141 135 167 181 131 45 163 180 181 167 165 179 180 163 43 174 178 181 179 176 175 180 174 38 35 129 142 132 186 190 195 191 129 40 130 142 190 187 192 195 142 130 45 131 195 192 188 193 132 142 131 41 191 195 193 189 186 190 195 191 16 182 194 185 190 187 192 195 182 31 183 194 195 192 188 193 194 183 44 184 191 195 193 189 185 194 184 34 40 147 156 130 187 201 205 192 147 36 148 156 201 199 202 205 156 148 42 149 205 202 200 203 130 156 149 45 192 205 203 188 187 201 205 192 31 196 204 183 201 199 202 205 196 21 197 204 205 202 200 203 204 197 32 198 192 205 203 188 183 204 198 44 45 149 170 163 188 203 215 211 149 42 161 170 203 200 212 215 170 161 37 162 215 212 209 213 163 170 162 43 211 215 213 210 188 203 215 211 44 198 214 208 203 200 212 215 198 32 206 214 215 212 209 213 214 206 26 207 211 215 213 210 208 214 207 33 41 131 180 175 189 193 222 219 131 45 163 180 193 188 211 222 180 163 43 174 222 211 210 220 175 180 174 38 219 222 220 218 189 193 222 219 34 184 221 217 193 188 211 222 184 44 208 221 222 211 210 220 221 208 33 216 219 222 220 218 217 221 216 22 8 223 231 145 150 232 236 154 223 46 224 231 232 229 233 236 231 224 54 225 236 233 230 234 145 231 225 28 154 236 234 151 150 232 236 154 36 226 235 148 232 229 233 236 226 55 227 235 236 233 230 234 235 227 59 228 154 236 234 151 148 235 228 42 46 237 245 224 229 246 250 233 237 1 238 245 246 243 247 250 245 238 47 239 250 247 244 248 224 245 239 54 233 250 248 230 229 246 250 233 55 240 249 227 246 243 247 250 240 52 241 249 250 247 244 248 249 241 56 242 233 250 248 230 227 249 242 59 54 239 259 253 230 248 264 260 239 47 251 259 248 244 261 264 259 251 9 252 264 261 257 262 253 259 252 48 260 264 262 258 230 248 264 260 59 242 263 256 248 244 261 264 242 56 254 263 264 261 257 262 263 254 53 255 260 264 262 258 256 263 255 57 28 225 267 158 151 234 270 168 225 54 253 267 234 230 260 270 267 253 48 265 270 260 258 268 158 267 265 20 168 270 268 164 151 234 270 168 42 228 269 161 234 230 260 270 228 59 256 269 270 260 258 268 269 256 57 266 168 270 268 164 161 269 266 37 36 226 235 148 199 276 280 202 226 55 227 235 276 274 277 280 235 227 59 228 280 277 275 278 148 235 228 42 202 280 278 200 199 276 280 202 21 271 279 197 276 274 277 280 271 49 272 279 280 277 275 278 279 272 58 273 202 280 278 200 197 279 273 32 55 240 249 227 274 286 290 277 240 52 241 249 286 284 287 290 249 241 56 242 290 287 285 288 227 249 242 59 277 290 288 275 274 286 290 277 49 281 289 272 286 284 287 290 281 17 282 289 290 287 285 288 289 282 50 283 277 290 288 275 272 289 283 58 59 242 263 256 275 288 300 296 242 56 254 263 288 285 297 300 263 254 53 255 300 297 294 298 256 263 255 57 296 300 298 295 275 288 300 296 58 283 299 293 288 285 297 300 283 50 291 299 300 297 294 298 299 291 23 292 296 300 298 295 293 299 292 51 42 228 269 161 200 278 304 212 228 59 256 269 278 275 296 304 269 256 57 266 304 296 295 302 161 269 266 37 212 304 302 209 200 278 304 212 32 273 303 206 278 275 296 304 273 58 293 303 304 296 295 302 303 293 51 301 212 304 302 209 206 303 301 26 20 265 313 307 164 268 318 314 265 48 305 313 268 258 315 318 313 305 68 306 318 315 311 316 307 313 306 62 314 318 316 312 164 268 318 314 37 266 317 310 268 258 315 318 266 57 308 317 318 315 311 316 317 308 73 309 314 318 316 312 310 317 309 69 48 252 324 305 258 262 328 315 252 9 319 324 262 257 325 328 324 319 60 320 328 325 323 326 305 324 320 68 315 328 326 311 258 262 328 315 57 255 327 308 262 257 325 328 255 53 321 327 328 325 323 326 327 321 70 322 315 328 326 311 308 327 322 73 68 320 337 331 311 326 342 338 320 60 329 337 326 323 339 342 337 329 2 330 342 339 335 340 331 337 330 61 338 342 340 336 311 326 342 338 73 322 341 334 326 323 339 342 322 70 332 341 342 339 335 340 341 332 66 333 338 342 340 336 334 341 333 71 62 306 348 344 312 316 352 349 306 68 331 348 316 311 338 352 348 331 61 343 352 338 336 350 344 348 343 10 349 352 350 347 312 316 352 349 69 309 351 346 316 311 338 352 309 73 334 351 352 338 336 350 351 334 71 345 349 352 350 347 346 351 345 67 37 266 317 310 209 302 362 358 266 57 308 317 302 295 359 362 317 308 73 309 362 359 356 360 310 317 309 69 358 362 360 357 209 302 362 358 26 301 361 355 302 295 359 362 301 51 353 361 362 359 356 360 361 353 72 354 358 362 360 357 355 361 354 65 57 255 327 308 295 298 369 359 255 53 321 327 298 294 366 369 327 321 70 322 369 366 365 367 308 327 322 73 359 369 367 356 295 298 369 359 51 292 368 353 298 294 366 369 292 23 363 368 369 366 365 367 368 363 63 364 359 369 367 356 353 368 364 72 73 322 341 334 356 367 379 375 322 70 332 341 367 365 376 379 341 332 66 333 379 376 373 377 334 341 333 71 375 379 377 374 356 367 379 375 72 364 378 372 367 365 376 379 364 63 370 378 379 376 373 377 378 370 18 371 375 379 377 374 372 378 371 64 69 309 351 346 357 360 386 383 309 73 334 351 360 356 375 386 351 334 71 345 386 375 374 384 346 351 345 67 383 386 384 382 357 360 386 383 65 354 385 381 360 356 375 386 354 72 372 385 386 375 374 384 385 372 64 380 383 386 384 382 381 385 380 24 11 172 395 389 176 179 400 396 172 29 387 395 179 165 397 400 395 387 79 388 400 397 393 398 389 395 388 75 396 400 398 394 176 179 400 396 38 174 399 392 179 165 397 400 174 43 390 399 400 397 393 398 399 390 83 391 396 400 398 394 392 399 391 80 29 159 403 387 165 169 406 397 159 20 307 403 169 164 314 406 403 307 62 401 406 314 312 404 387 403 401 79 397 406 404 393 165 169 406 397 43 162 405 390 169 164 314 406 162 37 310 405 406 314 312 404 405 310 69 402 397 406 404 393 390 405 402 83 79 401 412 408 393 404 416 413 401 62 344 412 404 312 349 416 412 344 10 407 416 349 347 414 408 412 407 74 413 416 414 411 393 404 416 413 83 402 415 410 404 312 349 416 402 69 346 415 416 349 347 414 415 346 67 409 413 416 414 411 410 415 409 81 75 388 422 418 394 398 426 423 388 79 408 422 398 393 413 426 422 408 74 417 426 413 411 424 418 422 417 3 423 426 424 421 394 398 426 423 80 391 425 420 398 393 413 426 391 83 410 425 426 413 411 424 425 410 81 419 423 426 424 421 420 425 419 78 38 174 399 392 218 220 436 432 174 43 390 399 220 210 433 436 399 390 83 391 436 433 430 434 392 399 391 80 432 436 434 431 218 220 436 432 22 216 435 429 220 210 433 436 216 33 427 435 436 433 430 434 435 427 82 428 432 436 434 431 429 435 428 77 43 162 405 390 210 213 440 433 162 37 310 405 213 209 358 440 405 310 69 402 440 358 357 438 390 405 402 83 433 440 438 430 210 213 440 433 33 207 439 427 213 209 358 440 207 26 355 439 440 358 357 438 439 355 65 437 433 440 438 430 427 439 437 82 83 402 415 410 430 438 447 444 402 69 346 415 438 357 383 447 415 346 67 409 447 383 382 445 410 415 409 81 444 447 445 443 430 438 447 444 82 437 446 442 438 357 383 447 437 65 381 446 447 383 382 445 446 381 24 441 444 447 445 443 442 446 441 76 80 391 425 420 431 434 454 451 391 83 410 425 434 430 444 454 425 410 81 419 454 444 443 452 420 425 419 78 451 454 452 450 431 434 454 451 77 428 453 449 434 430 444 454 428 82 442 453 454 444 443 452 453 442 76 448 451 454 452 450 449 453 448 19 16 182 194 185 459 463 468 464 182 31 183 194 463 460 465 468 194 183 44 184 468 465 461 466 185 194 184 34 464 468 466 462 459 463 468 464 88 455 467 458 463 460 465 468 455 92 456 467 468 465 461 466 467 456 97 457 464 468 466 462 458 467 457 93 31 196 204 183 460 474 478 465 196 21 197 204 474 472 475 478 204 197 32 198 478 475 473 476 183 204 198 44 465 478 476 461 460 474 478 465 92 469 477 456 474 472 475 478 469 89 470 477 478 475 473 476 477 470 94 471 465 478 476 461 456 477 471 97 44 198 214 208 461 476 488 484 198 32 206 214 476 473 485 488 214 206 26 207 488 485 482 486 208 214 207 33 484 488 486 483 461 476 488 484 97 471 487 481 476 473 485 488 471 94 479 487 488 485 482 486 487 479 90 480 484 488 486 483 481 487 480 95 34 184 221 217 462 466 495 492 184 44 208 221 466 461 484 495 221 208 33 216 495 484 483 493 217 221 216 22 492 495 493 491 462 466 495 492 93 457 494 490 466 461 484 495 457 97 481 494 495 484 483 493 494 481 95 489 492 495 493 491 490 494 489 91 88 455 467 458 500 504 509 505 455 92 456 467 504 501 506 509 467 456 97 457 509 506 502 507 458 467 457 93 505 509 507 503 500 504 509 505 4 496 508 499 504 501 506 509 496 84 497 508 509 506 502 507 508 497 96 498 505 509 507 503 499 508 498 87 92 469 477 456 501 515 519 506 469 89 470 477 515 513 516 519 477 470 94 471 519 516 514 517 456 477 471 97 506 519 517 502 501 515 519 506 84 510 518 497 515 513 516 519 510 12 511 518 519 516 514 517 518 511 85 512 506 519 517 502 497 518 512 96 97 471 487 481 502 517 529 525 471 94 479 487 517 514 526 529 487 479 90 480 529 526 523 527 481 487 480 95 525 529 527 524 502 517 529 525 96 512 528 522 517 514 526 529 512 85 520 528 529 526 523 527 528 520 25 521 525 529 527 524 522 528 521 86 93 457 494 490 503 507 536 533 457 97 481 494 507 502 525 536 494 481 95 489 536 525 524 534 490 494 489 91 533 536 534 532 503 507 536 533 87 498 535 531 507 502 525 536 498 96 522 535 536 525 524 534 535 522 86 530 533 536 534 532 531 535 530 15 21 271 279 197 472 542 546 475 271 49 272 279 542 540 543 546 279 272 58 273 546 543 541 544 197 279 273 32 475 546 544 473 472 542 546 475 89 537 545 470 542 540 543 546 537 103 538 545 546 543 541 544 545 538 107 539 475 546 544 473 470 545 539 94 49 281 289 272 540 552 556 543 281 17 282 289 552 550 553 556 289 282 50 283 556 553 551 554 272 289 283 58 543 556 554 541 540 552 556 543 103 547 555 538 552 550 553 556 547 101 548 555 556 553 551 554 555 548 104 549 543 556 554 541 538 555 549 107 58 283 299 293 541 554 566 562 283 50 291 299 554 551 563 566 299 291 23 292 566 563 560 564 293 299 292 51 562 566 564 561 541 554 566 562 107 549 565 559 554 551 563 566 549 104 557 565 566 563 560 564 565 557 102 558 562 566 564 561 559 565 558 105 32 273 303 206 473 544 570 485 273 58 293 303 544 541 562 570 303 293 51 301 570 562 561 568 206 303 301 26 485 570 568 482 473 544 570 485 94 539 569 479 544 541 562 570 539 107 559 569 570 562 561 568 569 559 105 567 485 570 568 482 479 569 567 90 89 537 545 470 513 576 580 516 537 103 538 545 576 574 577 580 545 538 107 539 580 577 575 578 470 545 539 94 516 580 578 514 513 576 580 516 12 571 579 511 576 574 577 580 571 98 572 579 580 577 575 578 579 572 106 573 516 580 578 514 511 579 573 85 103 547 555 538 574 586 590 577 547 101 548 555 586 584 587 590 555 548 104 549 590 587 585 588 538 555 549 107 577 590 588 575 574 586 590 577 98 581 589 572 586 584 587 590 581 5 582 589 590 587 585 588 589 582 99 583 577 590 588 575 572 589 583 106 107 549 565 559 575 588 600 596 549 104 557 565 588 585 597 600 565 557 102 558 600 597 594 598 559 565 558 105 596 600 598 595 575 588 600 596 106 583 599 593 588 585 597 600 583 99 591 599 600 597 594 598 599 591 13 592 596 600 598 595 593 599 592 100 94 539 569 479 514 578 604 526 539 107 559 569 578 575 596 604 569 559 105 567 604 596 595 602 479 569 567 90 526 604 602 523 514 578 604 526 85 573 603 520 578 575 596 604 573 106 593 603 604 596 595 602 603 593 100 601 526 604 602 523 520 603 601 25 26 301 361 355 482 568 614 610 301 51 353 361 568 561 611 614 361 353 72 354 614 611 608 612 355 361 354 65 610 614 612 609 482 568 614 610 90 567 613 607 568 561 611 614 567 105 605 613 614 611 608 612 613 605 117 606 610 614 612 609 607 613 606 113 51 292 368 353 561 564 621 611 292 23 363 368 564 560 618 621 368 363 63 364 621 618 617 619 353 368 364 72 611 621 619 608 561 564 621 611 105 558 620 605 564 560 618 621 558 102 615 620 621 618 617 619 620 615 114 616 611 621 619 608 605 620 616 117 72 364 378 372 608 619 631 627 364 63 370 378 619 617 628 631 378 370 18 371 631 628 625 629 372 378 371 64 627 631 629 626 608 619 631 627 117 616 630 624 619 617 628 631 616 114 622 630 631 628 625 629 630 622 111 623 627 631 629 626 624 630 623 115 65 354 385 381 609 612 638 635 354 72 372 385 612 608 627 638 385 372 64 380 638 627 626 636 381 385 380 24 635 638 636 634 609 612 638 635 113 606 637 633 612 608 627 638 606 117 624 637 638 627 626 636 637 624 115 632 635 638 636 634 633 637 632 112 90 567 613 607 523 602 648 644 567 105 605 613 602 595 645 648 613 605 117 606 648 645 642 646 607 613 606 113 644 648 646 643 523 602 648 644 25 601 647 641 602 595 645 648 601 100 639 647 648 645 642 646 647 639 116 640 644 648 646 643 641 647 640 110 105 558 620 605 595 598 655 645 558 102 615 620 598 594 652 655 620 615 114 616 655 652 651 653 605 620 616 117 645 655 653 642 595 598 655 645 100 592 654 639 598 594 652 655 592 13 649 654 655 652 651 653 654 649 108 650 645 655 653 642 639 654 650 116 117 616 630 624 642 653 665 661 616 114 622 630 653 651 662 665 630 622 111 623 665 662 659 663 624 630 623 115 661 665 663 660 642 653 665 661 116 650 664 658 653 651 662 665 650 108 656 664 665 662 659 663 664 656 6 657 661 665 663 660 658 664 657 109 113 606 637 633 643 646 672 669 606 117 624 637 646 642 661 672 637 624 115 632 672 661 660 670 633 637 632 112 669 672 670 668 643 646 672 669 110 640 671 667 646 642 661 672 640 116 658 671 672 661 660 670 671 658 109 666 669 672 670 668 667 671 666 14 22 216 435 429 491 493 682 678 216 33 427 435 493 483 679 682 435 427 82 428 682 679 676 680 429 435 428 77 678 682 680 677 491 493 682 678 91 489 681 675 493 483 679 682 489 95 673 681 682 679 676 680 681 673 124 674 678 682 680 677 675 681 674 121 33 207 439 427 483 486 686 679 207 26 355 439 486 482 610 686 439 355 65 437 686 610 609 684 427 439 437 82 679 686 684 676 483 486 686 679 95 480 685 673 486 482 610 686 480 90 607 685 686 610 609 684 685 607 113 683 679 686 684 676 673 685 683 124 82 437 446 442 676 684 693 690 437 65 381 446 684 609 635 693 446 381 24 441 693 635 634 691 442 446 441 76 690 693 691 689 676 684 693 690 124 683 692 688 684 609 635 693 683 113 633 692 693 635 634 691 692 633 112 687 690 693 691 689 688 692 687 122 77 428 453 449 677 680 700 697 428 82 442 453 680 676 690 700 453 442 76 448 700 690 689 698 449 453 448 19 697 700 698 696 677 680 700 697 121 674 699 695 680 676 690 700 674 124 688 699 700 690 689 698 699 688 122 694 697 700 698 696 695 699 694 120 91 489 681 675 532 534 710 706 489 95 673 681 534 524 707 710 681 673 124 674 710 707 704 708 675 681 674 121 706 710 708 705 532 534 710 706 15 530 709 703 534 524 707 710 530 86 701 709 710 707 704 708 709 701 123 702 706 710 708 705 703 709 702 119 95 480 685 673 524 527 714 707 480 90 607 685 527 523 644 714 685 607 113 683 714 644 643 712 673 685 683 124 707 714 712 704 524 527 714 707 86 521 713 701 527 523 644 714 521 25 641 713 714 644 643 712 713 641 110 711 707 714 712 704 701 713 711 123 124 683 692 688 704 712 721 718 683 113 633 692 712 643 669 721 692 633 112 687 721 669 668 719 688 692 687 122 718 721 719 717 704 712 721 718 123 711 720 716 712 643 669 721 711 110 667 720 721 669 668 719 720 667 14 715 718 721 719 717 716 720 715 118 121 674 699 695 705 708 728 725 674 124 688 699 708 704 718 728 699 688 122 694 728 718 717 726 695 699 694 120 725 728 726 724 705 708 728 725 119 702 727 723 708 704 718 728 702 123 716 727 728 718 717 726 727 716 118 722 725 728 726 724 723 727 722 7 </DataArray>